Of course! Below are all the Python scripts used during our conversation:

#### 1. **Reading the CSV File**
```python
import pandas as pd
data = pd.read_csv('/mnt/data/Global Food Security Index 2022.csv')
```

#### 2. **Reading the Document Files**
```python
from docx import Document

def read_docx(file_path):
    doc = Document(file_path)
    full_text = []
    for paragraph in doc.paragraphs:
        full_text.append(paragraph.text)
    return '\n'.join(full_text)
```

#### 3. **Descriptive Analysis**
```python
summary_statistics = data.describe()
```

#### 4. **Correlation Analysis**
```python
correlation_matrix = data.corr()
```

#### 5. **Multiple Linear Regression Setup**
```python
from sklearn.model_selection import train_test_split
from sklearn.linear_model import LinearRegression

# Dropping non-numeric columns
data_cleaned = data.select_dtypes(include=['float64', 'int64'])
X = data_cleaned.drop('Overall Score', axis=1)
y = data_cleaned['Overall Score']

# Splitting the data
X_train, X_test, y_train, y_test = train_test_split(X, y, test_size=0.2, random_state=42)
```

#### 6. **Building the Multiple Linear Regression Model**
```python
# Model building
lr_model = LinearRegression()
lr_model.fit(X_train, y_train)
```

#### 7. **Model Evaluation**
```python
# Making predictions
test_predictions = lr_model.predict(X_test)

# Calculating residuals
residuals = y_test - test_predictions

# Calculating performance metrics
from sklearn.metrics import mean_squared_error, r2_score
mse = mean_squared_error(y_test, test_predictions)
rmse = mean_squared_error(y_test, test_predictions, squared=False)
r2_val = r2_score(y_test, test_predictions)
```

#### 8. **Residual Analysis**
```python
import matplotlib.pyplot as plt
import seaborn as sns

# Residuals vs. Predicted Values
plt.figure(figsize=(10,6))
sns.scatterplot(x=test_predictions, y=residuals)
plt.axhline(y=0, color='r', linestyle='--')
plt.xlabel('Predicted Values')
plt.ylabel('Residuals')
plt.title('Residuals vs. Predicted Values')
plt.show()
```

#### 9. **Residual Distribution Analysis**
```python
# Distribution of Residuals
plt.figure(figsize=(10,6))
sns.histplot(residuals, kde=True)
plt.title('Distribution of Residuals')
plt.xlabel('Residual Value')
plt.ylabel('Frequency')
plt.show()
```

You can use these scripts as a starting point and expand or refine them as needed for your specific use case.
